# vtk DataFile Version 2.0
velosity
ASCII
DATASET UNSTRUCTURED_GRID
POINTS 190 float
0.000000 0.000000 0.0
0.000000 0.111111 0.0
0.000000 0.222222 0.0
0.000000 0.333333 0.0
0.000000 0.444444 0.0
0.000000 0.555556 0.0
0.000000 0.666667 0.0
0.000000 0.777778 0.0
0.000000 0.888889 0.0
0.000000 1.000000 0.0
0.111111 0.000000 0.0
0.111111 0.111111 0.0
0.111111 0.222222 0.0
0.111111 0.333333 0.0
0.111111 0.444444 0.0
0.111111 0.555556 0.0
0.111111 0.666667 0.0
0.111111 0.777778 0.0
0.111111 0.888889 0.0
0.111111 1.000000 0.0
0.222222 0.000000 0.0
0.222222 0.111111 0.0
0.222222 0.222222 0.0
0.222222 0.333333 0.0
0.222222 0.444444 0.0
0.222222 0.555556 0.0
0.222222 0.666667 0.0
0.222222 0.777778 0.0
0.222222 0.888889 0.0
0.222222 1.000000 0.0
0.333333 0.000000 0.0
0.333333 0.111111 0.0
0.333333 0.222222 0.0
0.333333 0.333333 0.0
0.333333 0.444444 0.0
0.333333 0.555556 0.0
0.333333 0.666667 0.0
0.333333 0.777778 0.0
0.333333 0.888889 0.0
0.333333 1.000000 0.0
0.444444 0.000000 0.0
0.444444 0.111111 0.0
0.444444 0.222222 0.0
0.444444 0.333333 0.0
0.444444 0.444444 0.0
0.444444 0.555556 0.0
0.444444 0.666667 0.0
0.444444 0.777778 0.0
0.444444 0.888889 0.0
0.444444 1.000000 0.0
0.555556 0.000000 0.0
0.555556 0.111111 0.0
0.555556 0.222222 0.0
0.555556 0.333333 0.0
0.555556 0.444444 0.0
0.555556 0.555556 0.0
0.555556 0.666667 0.0
0.555556 0.777778 0.0
0.555556 0.888889 0.0
0.555556 1.000000 0.0
0.666667 0.000000 0.0
0.666667 0.111111 0.0
0.666667 0.222222 0.0
0.666667 0.333333 0.0
0.666667 0.444444 0.0
0.666667 0.555556 0.0
0.666667 0.666667 0.0
0.666667 0.777778 0.0
0.666667 0.888889 0.0
0.666667 1.000000 0.0
0.777778 0.000000 0.0
0.777778 0.111111 0.0
0.777778 0.222222 0.0
0.777778 0.333333 0.0
0.777778 0.444444 0.0
0.777778 0.555556 0.0
0.777778 0.666667 0.0
0.777778 0.777778 0.0
0.777778 0.888889 0.0
0.777778 1.000000 0.0
0.888889 0.000000 0.0
0.888889 0.111111 0.0
0.888889 0.222222 0.0
0.888889 0.333333 0.0
0.888889 0.444444 0.0
0.888889 0.555556 0.0
0.888889 0.666667 0.0
0.888889 0.777778 0.0
0.888889 0.888889 0.0
0.888889 1.000000 0.0
1.000000 0.000000 0.0
1.000000 0.111111 0.0
1.000000 0.222222 0.0
1.000000 0.333333 0.0
1.000000 0.444444 0.0
1.000000 0.555556 0.0
1.000000 0.666667 0.0
1.000000 0.777778 0.0
1.000000 0.888889 0.0
1.000000 1.000000 0.0
1.111111 0.000000 0.0
1.111111 0.111111 0.0
1.111111 0.222222 0.0
1.111111 0.333333 0.0
1.111111 0.444444 0.0
1.111111 0.555556 0.0
1.111111 0.666667 0.0
1.111111 0.777778 0.0
1.111111 0.888889 0.0
1.111111 1.000000 0.0
1.222222 0.000000 0.0
1.222222 0.111111 0.0
1.222222 0.222222 0.0
1.222222 0.333333 0.0
1.222222 0.444444 0.0
1.222222 0.555556 0.0
1.222222 0.666667 0.0
1.222222 0.777778 0.0
1.222222 0.888889 0.0
1.222222 1.000000 0.0
1.333333 0.000000 0.0
1.333333 0.111111 0.0
1.333333 0.222222 0.0
1.333333 0.333333 0.0
1.333333 0.444444 0.0
1.333333 0.555556 0.0
1.333333 0.666667 0.0
1.333333 0.777778 0.0
1.333333 0.888889 0.0
1.333333 1.000000 0.0
1.444444 0.000000 0.0
1.444444 0.111111 0.0
1.444444 0.222222 0.0
1.444444 0.333333 0.0
1.444444 0.444444 0.0
1.444444 0.555556 0.0
1.444444 0.666667 0.0
1.444444 0.777778 0.0
1.444444 0.888889 0.0
1.444444 1.000000 0.0
1.555556 0.000000 0.0
1.555556 0.111111 0.0
1.555556 0.222222 0.0
1.555556 0.333333 0.0
1.555556 0.444444 0.0
1.555556 0.555556 0.0
1.555556 0.666667 0.0
1.555556 0.777778 0.0
1.555556 0.888889 0.0
1.555556 1.000000 0.0
1.666667 0.000000 0.0
1.666667 0.111111 0.0
1.666667 0.222222 0.0
1.666667 0.333333 0.0
1.666667 0.444444 0.0
1.666667 0.555556 0.0
1.666667 0.666667 0.0
1.666667 0.777778 0.0
1.666667 0.888889 0.0
1.666667 1.000000 0.0
1.777778 0.000000 0.0
1.777778 0.111111 0.0
1.777778 0.222222 0.0
1.777778 0.333333 0.0
1.777778 0.444444 0.0
1.777778 0.555556 0.0
1.777778 0.666667 0.0
1.777778 0.777778 0.0
1.777778 0.888889 0.0
1.777778 1.000000 0.0
1.888889 0.000000 0.0
1.888889 0.111111 0.0
1.888889 0.222222 0.0
1.888889 0.333333 0.0
1.888889 0.444444 0.0
1.888889 0.555556 0.0
1.888889 0.666667 0.0
1.888889 0.777778 0.0
1.888889 0.888889 0.0
1.888889 1.000000 0.0
2.000000 0.000000 0.0
2.000000 0.111111 0.0
2.000000 0.222222 0.0
2.000000 0.333333 0.0
2.000000 0.444444 0.0
2.000000 0.555556 0.0
2.000000 0.666667 0.0
2.000000 0.777778 0.0
2.000000 0.888889 0.0
2.000000 1.000000 0.0
CELLS 324 1296
3 0 10 1
3 1 10 11
3 1 11 2
3 2 11 12
3 2 12 3
3 3 12 13
3 3 13 4
3 4 13 14
3 4 14 5
3 5 14 15
3 5 15 6
3 6 15 16
3 6 16 7
3 7 16 17
3 7 17 8
3 8 17 18
3 8 18 9
3 9 18 19
3 10 20 11
3 11 20 21
3 11 21 12
3 12 21 22
3 12 22 13
3 13 22 23
3 13 23 14
3 14 23 24
3 14 24 15
3 15 24 25
3 15 25 16
3 16 25 26
3 16 26 17
3 17 26 27
3 17 27 18
3 18 27 28
3 18 28 19
3 19 28 29
3 20 30 21
3 21 30 31
3 21 31 22
3 22 31 32
3 22 32 23
3 23 32 33
3 23 33 24
3 24 33 34
3 24 34 25
3 25 34 35
3 25 35 26
3 26 35 36
3 26 36 27
3 27 36 37
3 27 37 28
3 28 37 38
3 28 38 29
3 29 38 39
3 30 40 31
3 31 40 41
3 31 41 32
3 32 41 42
3 32 42 33
3 33 42 43
3 33 43 34
3 34 43 44
3 34 44 35
3 35 44 45
3 35 45 36
3 36 45 46
3 36 46 37
3 37 46 47
3 37 47 38
3 38 47 48
3 38 48 39
3 39 48 49
3 40 50 41
3 41 50 51
3 41 51 42
3 42 51 52
3 42 52 43
3 43 52 53
3 43 53 44
3 44 53 54
3 44 54 45
3 45 54 55
3 45 55 46
3 46 55 56
3 46 56 47
3 47 56 57
3 47 57 48
3 48 57 58
3 48 58 49
3 49 58 59
3 50 60 51
3 51 60 61
3 51 61 52
3 52 61 62
3 52 62 53
3 53 62 63
3 53 63 54
3 54 63 64
3 54 64 55
3 55 64 65
3 55 65 56
3 56 65 66
3 56 66 57
3 57 66 67
3 57 67 58
3 58 67 68
3 58 68 59
3 59 68 69
3 60 70 61
3 61 70 71
3 61 71 62
3 62 71 72
3 62 72 63
3 63 72 73
3 63 73 64
3 64 73 74
3 64 74 65
3 65 74 75
3 65 75 66
3 66 75 76
3 66 76 67
3 67 76 77
3 67 77 68
3 68 77 78
3 68 78 69
3 69 78 79
3 70 80 71
3 71 80 81
3 71 81 72
3 72 81 82
3 72 82 73
3 73 82 83
3 73 83 74
3 74 83 84
3 74 84 75
3 75 84 85
3 75 85 76
3 76 85 86
3 76 86 77
3 77 86 87
3 77 87 78
3 78 87 88
3 78 88 79
3 79 88 89
3 80 90 81
3 81 90 91
3 81 91 82
3 82 91 92
3 82 92 83
3 83 92 93
3 83 93 84
3 84 93 94
3 84 94 85
3 85 94 95
3 85 95 86
3 86 95 96
3 86 96 87
3 87 96 97
3 87 97 88
3 88 97 98
3 88 98 89
3 89 98 99
3 90 100 91
3 91 100 101
3 91 101 92
3 92 101 102
3 92 102 93
3 93 102 103
3 93 103 94
3 94 103 104
3 94 104 95
3 95 104 105
3 95 105 96
3 96 105 106
3 96 106 97
3 97 106 107
3 97 107 98
3 98 107 108
3 98 108 99
3 99 108 109
3 100 110 101
3 101 110 111
3 101 111 102
3 102 111 112
3 102 112 103
3 103 112 113
3 103 113 104
3 104 113 114
3 104 114 105
3 105 114 115
3 105 115 106
3 106 115 116
3 106 116 107
3 107 116 117
3 107 117 108
3 108 117 118
3 108 118 109
3 109 118 119
3 110 120 111
3 111 120 121
3 111 121 112
3 112 121 122
3 112 122 113
3 113 122 123
3 113 123 114
3 114 123 124
3 114 124 115
3 115 124 125
3 115 125 116
3 116 125 126
3 116 126 117
3 117 126 127
3 117 127 118
3 118 127 128
3 118 128 119
3 119 128 129
3 120 130 121
3 121 130 131
3 121 131 122
3 122 131 132
3 122 132 123
3 123 132 133
3 123 133 124
3 124 133 134
3 124 134 125
3 125 134 135
3 125 135 126
3 126 135 136
3 126 136 127
3 127 136 137
3 127 137 128
3 128 137 138
3 128 138 129
3 129 138 139
3 130 140 131
3 131 140 141
3 131 141 132
3 132 141 142
3 132 142 133
3 133 142 143
3 133 143 134
3 134 143 144
3 134 144 135
3 135 144 145
3 135 145 136
3 136 145 146
3 136 146 137
3 137 146 147
3 137 147 138
3 138 147 148
3 138 148 139
3 139 148 149
3 140 150 141
3 141 150 151
3 141 151 142
3 142 151 152
3 142 152 143
3 143 152 153
3 143 153 144
3 144 153 154
3 144 154 145
3 145 154 155
3 145 155 146
3 146 155 156
3 146 156 147
3 147 156 157
3 147 157 148
3 148 157 158
3 148 158 149
3 149 158 159
3 150 160 151
3 151 160 161
3 151 161 152
3 152 161 162
3 152 162 153
3 153 162 163
3 153 163 154
3 154 163 164
3 154 164 155
3 155 164 165
3 155 165 156
3 156 165 166
3 156 166 157
3 157 166 167
3 157 167 158
3 158 167 168
3 158 168 159
3 159 168 169
3 160 170 161
3 161 170 171
3 161 171 162
3 162 171 172
3 162 172 163
3 163 172 173
3 163 173 164
3 164 173 174
3 164 174 165
3 165 174 175
3 165 175 166
3 166 175 176
3 166 176 167
3 167 176 177
3 167 177 168
3 168 177 178
3 168 178 169
3 169 178 179
3 170 180 171
3 171 180 181
3 171 181 172
3 172 181 182
3 172 182 173
3 173 182 183
3 173 183 174
3 174 183 184
3 174 184 175
3 175 184 185
3 175 185 176
3 176 185 186
3 176 186 177
3 177 186 187
3 177 187 178
3 178 187 188
3 178 188 179
3 179 188 189
CELL_TYPES 324
5
5
5
5
5
5
5
5
5
5
5
5
5
5
5
5
5
5
5
5
5
5
5
5
5
5
5
5
5
5
5
5
5
5
5
5
5
5
5
5
5
5
5
5
5
5
5
5
5
5
5
5
5
5
5
5
5
5
5
5
5
5
5
5
5
5
5
5
5
5
5
5
5
5
5
5
5
5
5
5
5
5
5
5
5
5
5
5
5
5
5
5
5
5
5
5
5
5
5
5
5
5
5
5
5
5
5
5
5
5
5
5
5
5
5
5
5
5
5
5
5
5
5
5
5
5
5
5
5
5
5
5
5
5
5
5
5
5
5
5
5
5
5
5
5
5
5
5
5
5
5
5
5
5
5
5
5
5
5
5
5
5
5
5
5
5
5
5
5
5
5
5
5
5
5
5
5
5
5
5
5
5
5
5
5
5
5
5
5
5
5
5
5
5
5
5
5
5
5
5
5
5
5
5
5
5
5
5
5
5
5
5
5
5
5
5
5
5
5
5
5
5
5
5
5
5
5
5
5
5
5
5
5
5
5
5
5
5
5
5
5
5
5
5
5
5
5
5
5
5
5
5
5
5
5
5
5
5
5
5
5
5
5
5
5
5
5
5
5
5
5
5
5
5
5
5
5
5
5
5
5
5
5
5
5
5
5
5
5
5
5
5
5
5
5
5
5
5
5
5
5
5
5
5
5
5
5
5
5
5
5
5
5
5
5
5
5
5
5
5
5
5
5
5
POINT_DATA 190
VECTORS point_vectors float
0.000000 0.000000 0.0
0.011110 0.000000 0.0
0.022220 0.000000 0.0
0.033330 0.000000 0.0
0.044440 0.000000 0.0
0.055550 0.000000 0.0
0.066660 0.000000 0.0
0.077770 0.000000 0.0
0.088880 0.000000 0.0
0.100000 0.000000 0.0
0.000000 0.000000 0.0
0.011221 -0.000163 0.0
0.022234 -0.000341 0.0
0.033223 -0.000458 0.0
0.044210 -0.000507 0.0
0.055197 -0.000488 0.0
0.066186 -0.000400 0.0
0.077173 -0.000244 0.0
0.088234 -0.000042 0.0
0.100000 0.000000 0.0
0.000000 0.000000 0.0
0.011379 -0.000175 0.0
0.022280 -0.000361 0.0
0.033130 -0.000483 0.0
0.043977 -0.000531 0.0
0.054824 -0.000506 0.0
0.065673 -0.000409 0.0
0.076526 -0.000242 0.0
0.087582 -0.000040 0.0
0.100000 0.000000 0.0
0.000000 0.000000 0.0
0.011537 -0.000173 0.0
0.022327 -0.000356 0.0
0.033039 -0.000475 0.0
0.043746 -0.000522 0.0
0.054453 -0.000497 0.0
0.065164 -0.000401 0.0
0.075888 -0.000236 0.0
0.086940 -0.000038 0.0
0.100000 0.000000 0.0
0.000000 0.000000 0.0
0.011693 -0.000169 0.0
0.022373 -0.000347 0.0
0.032949 -0.000463 0.0
0.043519 -0.000509 0.0
0.054089 -0.000484 0.0
0.064666 -0.000390 0.0
0.075264 -0.000229 0.0
0.086312 -0.000036 0.0
0.100000 0.000000 0.0
0.000000 0.000000 0.0
0.011844 -0.000163 0.0
0.022418 -0.000335 0.0
0.032862 -0.000447 0.0
0.043300 -0.000491 0.0
0.053737 -0.000467 0.0
0.064182 -0.000375 0.0
0.074658 -0.000220 0.0
0.085704 -0.000034 0.0
0.100000 0.000000 0.0
0.000000 0.000000 0.0
0.011989 -0.000157 0.0
0.022461 -0.000321 0.0
0.032778 -0.000427 0.0
0.043088 -0.000469 0.0
0.053398 -0.000446 0.0
0.063717 -0.000358 0.0
0.074076 -0.000210 0.0
0.085121 -0.000032 0.0
0.100000 0.000000 0.0
0.000000 0.000000 0.0
0.012127 -0.000148 0.0
0.022501 -0.000304 0.0
0.032699 -0.000404 0.0
0.042887 -0.000444 0.0
0.053075 -0.000422 0.0
0.063275 -0.000338 0.0
0.073521 -0.000197 0.0
0.084566 -0.000029 0.0
0.100000 0.000000 0.0
0.000000 0.000000 0.0
0.012257 -0.000139 0.0
0.022539 -0.000285 0.0
0.032623 -0.000378 0.0
0.042698 -0.000415 0.0
0.052771 -0.000394 0.0
0.062858 -0.000316 0.0
0.072999 -0.000184 0.0
0.084045 -0.000026 0.0
0.100000 0.000000 0.0
0.000000 0.000000 0.0
0.012379 -0.000129 0.0
0.022575 -0.000263 0.0
0.032553 -0.000349 0.0
0.042521 -0.000383 0.0
0.052488 -0.000363 0.0
0.062470 -0.000291 0.0
0.072514 -0.000168 0.0
0.083560 -0.000023 0.0
0.100000 0.000000 0.0
0.000000 0.000000 0.0
0.012490 -0.000117 0.0
0.022607 -0.000239 0.0
0.032489 -0.000318 0.0
0.042359 -0.000348 0.0
0.052228 -0.000330 0.0
0.062113 -0.000263 0.0
0.072068 -0.000152 0.0
0.083116 -0.000020 0.0
0.100000 0.000000 0.0
0.000000 0.000000 0.0
0.012590 -0.000105 0.0
0.022636 -0.000214 0.0
0.032430 -0.000284 0.0
0.042212 -0.000310 0.0
0.051993 -0.000294 0.0
0.061792 -0.000234 0.0
0.071667 -0.000134 0.0
0.082717 -0.000017 0.0
0.100000 0.000000 0.0
0.000000 0.000000 0.0
0.012679 -0.000092 0.0
0.022661 -0.000187 0.0
0.032378 -0.000247 0.0
0.042083 -0.000270 0.0
0.051785 -0.000255 0.0
0.061508 -0.000203 0.0
0.071312 -0.000115 0.0
0.082365 -0.000013 0.0
0.100000 0.000000 0.0
0.000000 0.000000 0.0
0.012755 -0.000078 0.0
0.022682 -0.000158 0.0
0.032334 -0.000209 0.0
0.041971 -0.000228 0.0
0.051607 -0.000215 0.0
0.061263 -0.000170 0.0
0.071006 -0.000096 0.0
0.082063 -0.000010 0.0
0.100000 0.000000 0.0
0.000000 0.000000 0.0
0.012819 -0.000064 0.0
0.022700 -0.000128 0.0
0.032296 -0.000169 0.0
0.041878 -0.000184 0.0
0.051458 -0.000173 0.0
0.061060 -0.000136 0.0
0.070753 -0.000076 0.0
0.081813 -0.000006 0.0
0.100000 0.000000 0.0
0.000000 0.000000 0.0
0.012869 -0.000049 0.0
0.022713 -0.000097 0.0
0.032266 -0.000127 0.0
0.041804 -0.000138 0.0
0.051341 -0.000129 0.0
0.060899 -0.000101 0.0
0.070554 -0.000055 0.0
0.081618 -0.000002 0.0
0.100000 0.000000 0.0
0.000000 0.000000 0.0
0.012905 -0.000033 0.0
0.022722 -0.000065 0.0
0.032244 -0.000085 0.0
0.041750 -0.000091 0.0
0.051255 -0.000085 0.0
0.060783 -0.000065 0.0
0.070410 -0.000033 0.0
0.081479 0.000001 0.0
0.100000 0.000000 0.0
0.000000 0.000000 0.0
0.012927 -0.000018 0.0
0.022727 -0.000034 0.0
0.032230 -0.000043 0.0
0.041717 -0.000046 0.0
0.051203 -0.000041 0.0
0.060713 -0.000030 0.0
0.070323 -0.000013 0.0
0.081397 0.000004 0.0
0.100000 0.000000 0.0
0.000000 0.000000 0.0
0.012937 -0.000011 0.0
0.022730 -0.000019 0.0
0.032225 -0.000023 0.0
0.041705 -0.000023 0.0
0.051184 -0.000019 0.0
0.060686 -0.000012 0.0
0.070291 -0.000002 0.0
0.081370 0.000006 0.0
0.100000 0.000000 0.0
CELL_DATA 324
